# vtk DataFile Version 5.1
vtk output
ASCII
DATASET POLYDATA
POINTS 15 double
0 0.02 0.015 0.01 0.02 0.015 0.022 0.013 0.015 
0.022 0.028 0.015 0.015 0.005 0.015 0.015 0.035 0.015 
0.038 0.005 0.015 0.038 0.035 0.015 0.005 0.02 0.015 
0.016 0.0165 0.015 0.016 0.024 0.015 0.0185 0.009 0.015 
0.03 0.009 0.015 0.0185 0.0315 0.015 0.03 0.0315 0.015 

LINES 15 28
OFFSETS vtktypeint64
0 2 4 6 8 10 12 14 16 
18 20 22 24 26 28 
CONNECTIVITY vtktypeint64
0 8 1 8 1 9 2 9 1 
10 3 10 2 11 4 11 2 12 
6 12 3 13 5 13 3 14 7 
14 
POINT_DATA 15
FIELD FieldData 2
radius 1 15 double
0.004 0.004 0.003 0.003 0.002 0.002 0.003 0.003 0.004 
0.003 0.003 0.002 0.003 0.002 0.003 
Pressure1D 1 15 double
13332.2 13332.199979 13332.199976 13332.199977 13332.2 13332.2 13332.2 13332.2 13332.199988 
13332.199975 13332.199976 13332.199983 13332.199982 13332.199983 13332.199982 
